  2  2
1 1
 1.126630567542609 1.2712770103299569 0.9947267992751133
 0.4555764089512838 0.9719167682948017 0.5798760006308181
 1.2712770103299569 1.1604653762180053 0.870592189626587
1 2
 1.5650891064482808 1.05065686412516 0.8494617730706006
 0.9947267992751133 0.870592189626587 1.455388251886971
 1.8147538487129347 0.7746285896097482 1.4589439871845842
2 1
 0.4555764089512838 1.5650891064482808 1.8147538487129347
 0.061038977114263204 0.9343197990951758 0.13425353864616052
 0.9719167682948017 1.05065686412516 0.7746285896097482
2 2
 0.9343197990951758 0.4280316685430787 0.4097785489897239
 0.5798760006308181 0.8494617730706006 1.4589439871845842
 0.13425353864616052 0.4097785489897239 0.24085379473622393
